Crystalline Cu atoms

40000 atoms
1 atom types
0.000000 120.000000 xlo xhi
0.000000 10.000000 ylo yhi
0.000000 10.000000 zlo zhi

Atoms

1 1 10.000000 0.000000 0.000000
2 1 10.000000 0.500000 0.500000
3 1 10.500000 0.000000 0.500000
4 1 10.500000 0.500000 0.000000
5 1 10.000000 0.000000 1.000000
6 1 10.000000 0.500000 1.500000
7 1 10.500000 0.000000 1.500000
8 1 10.500000 0.500000 1.000000
9 1 10.000000 0.000000 2.000000
10 1 10.000000 0.500000 2.500000
11 1 10.500000 0.000000 2.500000
12 1 10.500000 0.500000 2.000000
13 1 10.000000 0.000000 3.000000
14 1 10.000000 0.500000 3.500000
15 1 10.500000 0.000000 3.500000
16 1 10.500000 0.500000 3.000000
17 1 10.000000 0.000000 4.000000
18 1 10.000000 0.500000 4.500000
19 1 10.500000 0.000000 4.500000
20 1 10.500000 0.500000 4.000000
21 1 10.000000 0.000000 5.000000
22 1 10.000000 0.500000 5.500000
23 1 10.500000 0.000000 5.500000
24 1 10.500000 0.500000 5.000000
25 1 10.000000 0.000000 6.000000
26 1 10.000000 0.500000 6.500000
27 1 10.500000 0.000000 6.500000
28 1 10.500000 0.500000 6.000000
29 1 10.000000 0.000000 7.000000
30 1 10.000000 0.500000 7.500000
31 1 10.500000 0.000000 7.500000
32 1 10.500000 0.500000 7.000000
33 1 10.000000 0.000000 8.000000
34 1 10.000000 0.500000 8.500000
35 1 10.500000 0.000000 8.500000
36 1 10.500000 0.500000 8.000000
37 1 10.000000 0.000000 9.000000
38 1 10.000000 0.500000 9.500000
39 1 10.500000 0.000000 9.500000
40 1 10.500000 0.500000 9.000000
41 1 10.000000 1.000000 0.000000
42 1 10.000000 1.500000 0.500000
43 1 10.500000 1.000000 0.500000
44 1 10.500000 1.500000 0.000000
45 1 10.000000 1.000000 1.000000
46 1 10.000000 1.500000 1.500000
47 1 10.500000 1.000000 1.500000
48 1 10.500000 1.500000 1.000000
49 1 10.000000 1.000000 2.000000
50 1 10.000000 1.500000 2.500000
51 1 10.500000 1.000000 2.500000
52 1 10.500000 1.500000 2.000000
53 1 10.000000 1.000000 3.000000
54 1 10.000000 1.500000 3.500000
55 1 10.500000 1.000000 3.500000
56 1 10.500000 1.500000 3.000000
57 1 10.000000 1.000000 4.000000
58 1 10.000000 1.500000 4.500000
59 1 10.500000 1.000000 4.500000
60 1 10.500000 1.500000 4.000000
61 1 10.000000 1.000000 5.000000
62 1 10.000000 1.500000 5.500000
63 1 10.500000 1.000000 5.500000
64 1 10.500000 1.500000 5.000000
65 1 10.000000 1.000000 6.000000
66 1 10.000000 1.500000 6.500000
67 1 10.500000 1.000000 6.500000
68 1 10.500000 1.500000 6.000000
69 1 10.000000 1.000000 7.000000
70 1 10.000000 1.500000 7.500000
71 1 10.500000 1.000000 7.500000
72 1 10.500000 1.500000 7.000000
73 1 10.000000 1.000000 8.000000
74 1 10.000000 1.500000 8.500000
75 1 10.500000 1.000000 8.500000
76 1 10.500000 1.500000 8.000000
77 1 10.000000 1.000000 9.000000
78 1 10.000000 1.500000 9.500000
79 1 10.500000 1.000000 9.500000
80 1 10.500000 1.500000 9.000000
81 1 10.000000 2.000000 0.000000
82 1 10.000000 2.500000 0.500000
83 1 10.500000 2.000000 0.500000
84 1 10.500000 2.500000 0.000000
85 1 10.000000 2.000000 1.000000
86 1 10.000000 2.500000 1.500000
87 1 10.500000 2.000000 1.500000
88 1 10.500000 2.500000 1.000000
89 1 10.000000 2.000000 2.000000
90 1 10.000000 2.500000 2.500000
91 1 10.500000 2.000000 2.500000
92 1 10.500000 2.500000 2.000000
93 1 10.000000 2.000000 3.000000
94 1 10.000000 2.500000 3.500000
95 1 10.500000 2.000000 3.500000
96 1 10.500000 2.500000 3.000000
97 1 10.000000 2.000000 4.000000
98 1 10.000000 2.500000 4.500000
99 1 10.500000 2.000000 4.500000
100 1 10.500000 2.500000 4.000000
101 1 10.000000 2.000000 5.000000
102 1 10.000000 2.500000 5.500000
103 1 10.500000 2.000000 5.500000
104 1 10.500000 2.500000 5.000000
105 1 10.000000 2.000000 6.000000
106 1 10.000000 2.500000 6.500000
107 1 10.500000 2.000000 6.500000
108 1 10.500000 2.500000 6.000000
109 1 10.000000 2.000000 7.000000
110 1 10.000000 2.500000 7.500000
111 1 10.500000 2.000000 7.500000
112 1 10.500000 2.500000 7.000000
113 1 10.000000 2.000000 8.000000
114 1 10.000000 2.500000 8.500000
115 1 10.500000 2.000000 8.500000
116 1 10.500000 2.500000 8.000000
117 1 10.000000 2.000000 9.000000
118 1 10.000000 2.500000 9.500000
119 1 10.500000 2.000000 9.500000
120 1 10.500000 2.500000 9.000000
121 1 10.000000 3.000000 0.000000
122 1 10.000000 3.500000 0.500000
123 1 10.500000 3.000000 0.500000
124 1 10.500000 3.500000 0.000000
125 1 10.000000 3.000000 1.000000
126 1 10.000000 3.500000 1.500000
127 1 10.500000 3.000000 1.500000
128 1 10.500000 3.500000 1.000000
129 1 10.000000 3.000000 2.000000
130 1 10.000000 3.500000 2.500000
131 1 10.500000 3.000000 2.500000
132 1 10.500000 3.500000 2.000000
133 1 10.000000 3.000000 3.000000
134 1 10.000000 3.500000 3.500000
135 1 10.500000 3.000000 3.500000
136 1 10.500000 3.500000 3.000000
137 1 10.000000 3.000000 4.000000
138 1 10.000000 3.500000 4.500000
139 1 10.500000 3.000000 4.500000
140 1 10.500000 3.500000 4.000000
141 1 10.000000 3.000000 5.000000
142 1 10.000000 3.500000 5.500000
143 1 10.500000 3.000000 5.500000
144 1 10.500000 3.500000 5.000000
145 1 10.000000 3.000000 6.000000
146 1 10.000000 3.500000 6.500000
147 1 10.500000 3.000000 6.500000
148 1 10.500000 3.500000 6.000000
149 1 10.000000 3.000000 7.000000
150 1 10.000000 3.500000 7.500000
151 1 10.500000 3.000000 7.500000
152 1 10.500000 3.500000 7.000000
153 1 10.000000 3.000000 8.000000
154 1 10.000000 3.500000 8.500000
155 1 10.500000 3.000000 8.500000
156 1 10.500000 3.500000 8.000000
157 1 10.000000 3.000000 9.000000
158 1 10.000000 3.500000 9.500000
159 1 10.500000 3.000000 9.500000
160 1 10.500000 3.500000 9.000000
161 1 10.000000 4.000000 0.000000
162 1 10.000000 4.500000 0.500000
163 1 10.500000 4.000000 0.500000
164 1 10.500000 4.500000 0.000000
165 1 10.000000 4.000000 1.000000
166 1 10.000000 4.500000 1.500000
167 1 10.500000 4.000000 1.500000
168 1 10.500000 4.500000 1.000000
169 1 10.000000 4.000000 2.000000
170 1 10.000000 4.500000 2.500000
171 1 10.500000 4.000000 2.500000
172 1 10.500000 4.500000 2.000000
173 1 10.000000 4.000000 3.000000
174 1 10.000000 4.500000 3.500000
175 1 10.500000 4.000000 3.500000
176 1 10.500000 4.500000 3.000000
177 1 10.000000 4.000000 4.000000
178 1 10.000000 4.500000 4.500000
179 1 10.500000 4.000000 4.500000
180 1 10.500000 4.500000 4.000000
181 1 10.000000 4.000000 5.000000
182 1 10.000000 4.500000 5.500000
183 1 10.500000 4.000000 5.500000
184 1 10.500000 4.500000 5.000000
185 1 10.000000 4.000000 6.000000
186 1 10.000000 4.500000 6.500000
187 1 10.500000 4.000000 6.500000
188 1 10.500000 4.500000 6.000000
189 1 10.000000 4.000000 7.000000
190 1 10.000000 4.500000 7.500000
191 1 10.500000 4.000000 7.500000
192 1 10.500000 4.500000 7.000000
193 1 10.000000 4.000000 8.000000
194 1 10.000000 4.500000 8.500000
195 1 10.500000 4.000000 8.500000
196 1 10.500000 4.500000 8.000000
197 1 10.000000 4.000000 9.000000
198 1 10.000000 4.500000 9.500000
199 1 10.500000 4.000000 9.500000
200 1 10.500000 4.500000 9.000000
201 1 10.000000 5.000000 0.000000
202 1 10.000000 5.500000 0.500000
203 1 10.500000 5.000000 0.500000
204 1 10.500000 5.500000 0.000000
205 1 10.000000 5.000000 1.000000
206 1 10.000000 5.500000 1.500000
207 1 10.500000 5.000000 1.500000
208 1 10.500000 5.500000 1.000000
209 1 10.000000 5.000000 2.000000
210 1 10.000000 5.500000 2.500000
211 1 10.500000 5.000000 2.500000
212 1 10.500000 5.500000 2.000000
213 1 10.000000 5.000000 3.000000
214 1 10.000000 5.500000 3.500000
215 1 10.500000 5.000000 3.500000
216 1 10.500000 5.500000 3.000000
217 1 10.000000 5.000000 4.000000
218 1 10.000000 5.500000 4.500000
219 1 10.500000 5.000000 4.500000
220 1 10.500000 5.500000 4.000000
221 1 10.000000 5.000000 5.000000
222 1 10.000000 5.500000 5.500000
223 1 10.500000 5.000000 5.500000
224 1 10.500000 5.500000 5.000000
225 1 10.000000 5.000000 6.000000
226 1 10.000000 5.500000 6.500000
227 1 10.500000 5.000000 6.500000
228 1 10.500000 5.500000 6.000000
229 1 10.000000 5.000000 7.000000
230 1 10.000000 5.500000 7.500000
231 1 10.500000 5.000000 7.500000
232 1 10.500000 5.500000 7.000000
233 1 10.000000 5.000000 8.000000
234 1 10.000000 5.500000 8.500000
235 1 10.500000 5.000000 8.500000
236 1 10.500000 5.500000 8.000000
237 1 10.000000 5.000000 9.000000
238 1 10.000000 5.500000 9.500000
239 1 10.500000 5.000000 9.500000
240 1 10.500000 5.500000 9.000000
241 1 10.000000 6.000000 0.000000
242 1 10.000000 6.500000 0.500000
243 1 10.500000 6.000000 0.500000
244 1 10.500000 6.500000 0.000000
245 1 10.000000 6.000000 1.000000
246 1 10.000000 6.500000 1.500000
247 1 10.500000 6.000000 1.500000
248 1 10.500000 6.500000 1.000000
249 1 10.000000 6.000000 2.000000
250 1 10.000000 6.500000 2.500000
251 1 10.500000 6.000000 2.500000
252 1 10.500000 6.500000 2.000000
253 1 10.000000 6.000000 3.000000
254 1 10.000000 6.500000 3.500000
255 1 10.500000 6.000000 3.500000
256 1 10.500000 6.500000 3.000000
257 1 10.000000 6.000000 4.000000
258 1 10.000000 6.500000 4.500000
259 1 10.500000 6.000000 4.500000
260 1 10.500000 6.500000 4.000000
261 1 10.000000 6.000000 5.000000
262 1 10.000000 6.500000 5.500000
263 1 10.500000 6.000000 5.500000
264 1 10.500000 6.500000 5.000000
265 1 10.000000 6.000000 6.000000
266 1 10.000000 6.500000 6.500000
267 1 10.500000 6.000000 6.500000
268 1 10.500000 6.500000 6.000000
269 1 10.000000 6.000000 7.000000
270 1 10.000000 6.500000 7.500000
271 1 10.500000 6.000000 7.500000
272 1 10.500000 6.500000 7.000000
273 1 10.000000 6.000000 8.000000
274 1 10.000000 6.500000 8.500000
275 1 10.500000 6.000000 8.500000
276 1 10.500000 6.500000 8.000000
277 1 10.000000 6.000000 9.000000
278 1 10.000000 6.500000 9.500000
279 1 10.500000 6.000000 9.500000
280 1 10.500000 6.500000 9.000000
281 1 10.000000 7.000000 0.000000
282 1 10.000000 7.500000 0.500000
283 1 10.500000 7.000000 0.500000
284 1 10.500000 7.500000 0.000000
285 1 10.000000 7.000000 1.000000
286 1 10.000000 7.500000 1.500000
287 1 10.500000 7.000000 1.500000
288 1 10.500000 7.500000 1.000000
289 1 10.000000 7.000000 2.000000
290 1 10.000000 7.500000 2.500000
291 1 10.500000 7.000000 2.500000
292 1 10.500000 7.500000 2.000000
293 1 10.000000 7.000000 3.000000
294 1 10.000000 7.500000 3.500000
295 1 10.500000 7.000000 3.500000
296 1 10.500000 7.500000 3.000000
297 1 10.000000 7.000000 4.000000
298 1 10.000000 7.500000 4.500000
299 1 10.500000 7.000000 4.500000
300 1 10.500000 7.500000 4.000000
301 1 10.000000 7.000000 5.000000
302 1 10.000000 7.500000 5.500000
303 1 10.500000 7.000000 5.500000
304 1 10.500000 7.500000 5.000000
305 1 10.000000 7.000000 6.000000
306 1 10.000000 7.500000 6.500000
307 1 10.500000 7.000000 6.500000
308 1 10.500000 7.500000 6.000000
309 1 10.000000 7.000000 7.000000
310 1 10.000000 7.500000 7.500000
311 1 10.500000 7.000000 7.500000
312 1 10.500000 7.500000 7.000000
313 1 10.000000 7.000000 8.000000
314 1 10.000000 7.500000 8.500000
315 1 10.500000 7.000000 8.500000
316 1 10.500000 7.500000 8.000000
317 1 10.000000 7.000000 9.000000
318 1 10.000000 7.500000 9.500000
319 1 10.500000 7.000000 9.500000
320 1 10.500000 7.500000 9.000000
321 1 10.000000 8.000000 0.000000
322 1 10.000000 8.500000 0.500000
323 1 10.500000 8.000000 0.500000
324 1 10.500000 8.500000 0.000000
325 1 10.000000 8.000000 1.000000
326 1 10.000000 8.500000 1.500000
327 1 10.500000 8.000000 1.500000
328 1 10.500000 8.500000 1.000000
329 1 10.000000 8.000000 2.000000
330 1 10.000000 8.500000 2.500000
331 1 10.500000 8.000000 2.500000
332 1 10.500000 8.500000 2.000000
333 1 10.000000 8.000000 3.000000
334 1 10.000000 8.500000 3.500000
335 1 10.500000 8.000000 3.500000
336 1 10.500000 8.500000 3.000000
337 1 10.000000 8.000000 4.000000
338 1 10.000000 8.500000 4.500000
339 1 10.500000 8.000000 4.500000
340 1 10.500000 8.500000 4.000000
341 1 10.000000 8.000000 5.000000
342 1 10.000000 8.500000 5.500000
343 1 10.500000 8.000000 5.500000
344 1 10.500000 8.500000 5.000000
345 1 10.000000 8.000000 6.000000
346 1 10.000000 8.500000 6.500000
347 1 10.500000 8.000000 6.500000
348 1 10.500000 8.500000 6.000000
349 1 10.000000 8.000000 7.000000
350 1 10.000000 8.500000 7.500000
351 1 10.500000 8.000000 7.500000
352 1 10.500000 8.500000 7.000000
353 1 10.000000 8.000000 8.000000
354 1 10.000000 8.500000 8.500000
355 1 10.500000 8.000000 8.500000
356 1 10.500000 8.500000 8.000000
357 1 10.000000 8.000000 9.000000
358 1 10.000000 8.500000 9.500000
359 1 10.500000 8.000000 9.500000
360 1 10.500000 8.500000 9.000000
361 1 10.000000 9.000000 0.000000
362 1 10.000000 9.500000 0.500000
363 1 10.500000 9.000000 0.500000
364 1 10.500000 9.500000 0.000000
365 1 10.000000 9.000000 1.000000
366 1 10.000000 9.500000 1.500000
367 1 10.500000 9.000000 1.500000
368 1 10.500000 9.500000 1.000000
369 1 10.000000 9.000000 2.000000
370 1 10.000000 9.500000 2.500000
371 1 10.500000 9.000000 2.500000
372 1 10.500000 9.500000 2.000000
373 1 10.000000 9.000000 3.000000
374 1 10.000000 9.500000 3.500000
375 1 10.500000 9.000000 3.500000
376 1 10.500000 9.500000 3.000000
377 1 10.000000 9.000000 4.000000
378 1 10.000000 9.500000 4.500000
379 1 10.500000 9.000000 4.500000
380 1 10.500000 9.500000 4.000000
381 1 10.000000 9.000000 5.000000
382 1 10.000000 9.500000 5.500000
383 1 10.500000 9.000000 5.500000
384 1 10.500000 9.500000 5.000000
385 1 10.000000 9.000000 6.000000
386 1 10.000000 9.500000 6.500000
387 1 10.500000 9.000000 6.500000
388 1 10.500000 9.500000 6.000000
389 1 10.000000 9.000000 7.000000
390 1 10.000000 9.500000 7.500000
391 1 10.500000 9.000000 7.500000
392 1 10.500000 9.500000 7.000000
393 1 10.000000 9.000000 8.000000
394 1 10.000000 9.500000 8.500000
395 1 10.500000 9.000000 8.500000
396 1 10.500000 9.500000 8.000000
397 1 10.000000 9.000000 9.000000
398 1 10.000000 9.500000 9.500000
399 1 10.500000 9.000000 9.500000
400 1 10.500000 9.500000 9.000000
401 1 11.000000 0.000000 0.000000
402 1 11.000000 0.500000 0.500000
403 1 11.500000 0.000000 0.500000
404 1 11.500000 0.500000 0.000000
405 1 11.000000 0.000000 1.000000
406 1 11.000000 0.500000 1.500000
407 1 11.500000 0.000000 1.500000
408 1 11.500000 0.500000 1.000000
409 1 11.000000 0.000000 2.000000
410 1 11.000000 0.500000 2.500000
411 1 11.500000 0.000000 2.500000
412 1 11.500000 0.500000 2.000000
413 1 11.000000 0.000000 3.000000
414 1 11.000000 0.500000 3.500000
415 1 11.500000 0.000000 3.500000
416 1 11.500000 0.500000 3.000000
417 1 11.000000 0.000000 4.000000
418 1 11.000000 0.500000 4.500000
419 1 11.500000 0.000000 4.500000
420 1 11.500000 0.500000 4.000000
421 1 11.000000 0.000000 5.000000
422 1 11.000000 0.500000 5.500000
423 1 11.500000 0.000000 5.500000
424 1 11.500000 0.500000 5.000000
425 1 11.000000 0.000000 6.000000
426 1 11.000000 0.500000 6.500000
427 1 11.500000 0.000000 6.500000
428 1 11.500000 0.500000 6.000000
429 1 11.000000 0.000000 7.000000
430 1 11.000000 0.500000 7.500000
431 1 11.500000 0.000000 7.500000
432 1 11.500000 0.500000 7.000000
433 1 11.000000 0.000000 8.000000
434 1 11.000000 0.500000 8.500000
435 1 11.500000 0.000000 8.500000
436 1 11.500000 0.500000 8.000000
437 1 11.000000 0.000000 9.000000
438 1 11.000000 0.500000 9.500000
439 1 11.500000 0.000000 9.500000
440 1 11.500000 0.500000 9.000000
441 1 11.000000 1.000000 0.000000
442 1 11.000000 1.500000 0.500000
443 1 11.500000 1.000000 0.500000
444 1 11.500000 1.500000 0.000000
445 1 11.000000 1.000000 1.000000
446 1 11.000000 1.500000 1.500000
447 1 11.500000 1.000000 1.500000
448 1 11.500000 1.500000 1.000000
449 1 11.000000 1.000000 2.000000
450 1 11.000000 1.500000 2.500000
451 1 11.500000 1.000000 2.500000
452 1 11.500000 1.500000 2.000000
453 1 11.000000 1.000000 3.000000
454 1 11.000000 1.500000 3.500000
455 1 11.500000 1.000000 3.500000
456 1 11.500000 1.500000 3.000000
457 1 11.000000 1.000000 4.000000
458 1 11.000000 1.500000 4.500000
459 1 11.500000 1.000000 4.500000
460 1 11.500000 1.500000 4.000000
461 1 11.000000 1.000000 5.000000
462 1 11.000000 1.500000 5.500000
463 1 11.500000 1.000000 5.500000
464 1 11.500000 1.500000 5.000000
465 1 11.000000 1.000000 6.000000
466 1 11.000000 1.500000 6.500000
467 1 11.500000 1.000000 6.500000
468 1 11.500000 1.500000 6.000000
469 1 11.000000 1.000000 7.000000
470 1 11.000000 1.500000 7.500000
471 1 11.500000 1.000000 7.500000
472 1 11.500000 1.500000 7.000000
473 1 11.000000 1.000000 8.000000
474 1 11.000000 1.500000 8.500000
475 1 11.500000 1.000000 8.500000
476 1 11.500000 1.500000 8.000000
477 1 11.000000 1.000000 9.000000
478 1 11.000000 1.500000 9.500000
479 1 11.500000 1.000000 9.500000
480 1 11.500000 1.500000 9.000000
481 1 11.000000 2.000000 0.000000
482 1 11.000000 2.500000 0.500000
483 1 11.500000 2.000000 0.500000
484 1 11.500000 2.500000 0.000000
485 1 11.000000 2.000000 1.000000
486 1 11.000000 2.500000 1.500000
487 1 11.500000 2.000000 1.500000
488 1 11.500000 2.500000 1.000000
489 1 11.000000 2.000000 2.000000
490 1 11.000000 2.500000 2.500000
491 1 11.500000 2.000000 2.500000
492 1 11.500000 2.500000 2.000000
493 1 11.000000 2.000000 3.000000
494 1 11.000000 2.500000 3.500000
495 1 11.500000 2.000000 3.500000
496 1 11.500000 2.500000 3.000000
497 1 11.000000 2.000000 4.000000
498 1 11.000000 2.500000 4.500000
499 1 11.500000 2.000000 4.500000
500 1 11.500000 2.500000 4.000000
501 1 11.000000 2.000000 5.000000
502 1 11.000000 2.500000 5.500000
503 1 11.500000 2.000000 5.500000
504 1 11.500000 2.500000 5.000000
505 1 11.000000 2.000000 6.000000
506 1 11.000000 2.500000 6.500000
507 1 11.500000 2.000000 6.500000
508 1 11.500000 2.500000 6.000000
509 1 11.000000 2.000000 7.000000
510 1 11.000000 2.500000 7.500000
511 1 11.500000 2.000000 7.500000
512 1 11.500000 2.500000 7.000000
513 1 11.000000 2.000000 8.000000
514 1 11.000000 2.500000 8.500000
515 1 11.500000 2.000000 8.500000
516 1 11.500000 2.500000 8.000000
517 1 11.000000 2.000000 9.000000
518 1 11.000000 2.500000 9.500000
519 1 11.500000 2.000000 9.500000
520 1 11.500000 2.500000 9.000000
521 1 11.000000 3.000000 0.000000
522 1 11.000000 3.500000 0.500000
523 1 11.500000 3.000000 0.500000
524 1 11.500000 3.500000 0.000000
525 1 11.000000 3.000000 1.000000
526 1 11.000000 3.500000 1.500000
527 1 11.500000 3.000000 1.500000
528 1 11.500000 3.500000 1.000000
529 1 11.000000 3.000000 2.000000
530 1 11.000000 3.500000 2.500000
531 1 11.500000 3.000000 2.500000
532 1 11.500000 3.500000 2.000000
533 1 11.000000 3.000000 3.000000
534 1 11.000000 3.500000 3.500000
535 1 11.500000 3.000000 3.500000
536 1 11.500000 3.500000 3.000000
537 1 11.000000 3.000000 4.000000
538 1 11.000000 3.500000 4.500000
539 1 11.500000 3.000000 4.500000
540 1 11.500000 3.500000 4.000000
541 1 11.000000 3.000000 5.000000
542 1 11.000000 3.500000 5.500000
543 1 11.500000 3.000000 5.500000
544 1 11.500000 3.500000 5.000000
545 1 11.000000 3.000000 6.000000
546 1 11.000000 3.500000 6.500000
547 1 11.500000 3.000000 6.500000
548 1 11.500000 3.500000 6.000000
549 1 11.000000 3.000000 7.000000
550 1 11.000000 3.500000 7.500000
551 1 11.500000 3.000000 7.500000
552 1 11.500000 3.500000 7.000000
553 1 11.000000 3.000000 8.000000
554 1 11.000000 3.500000 8.500000
555 1 11.500000 3.000000 8.500000
556 1 11.500000 3.500000 8.000000
557 1 11.000000 3.000000 9.000000
558 1 11.000000 3.500000 9.500000
559 1 11.500000 3.000000 9.500000
560 1 11.500000 3.500000 9.000000
561 1 11.000000 4.000000 0.000000
562 1 11.000000 4.500000 0.500000
563 1 11.500000 4.000000 0.500000
564 1 11.500000 4.500000 0.000000
565 1 11.000000 4.000000 1.000000
566 1 11.000000 4.500000 1.500000
567 1 11.500000 4.000000 1.500000
568 1 11.500000 4.500000 1.000000
569 1 11.000000 4.000000 2.000000
570 1 11.000000 4.500000 2.500000
571 1 11.500000 4.000000 2.500000
572 1 11.500000 4.500000 2.000000
573 1 11.000000 4.000000 3.000000
574 1 11.000000 4.500000 3.500000
575 1 11.500000 4.000000 3.500000
576 1 11.500000 4.500000 3.000000
577 1 11.000000 4.000000 4.000000
578 1 11.000000 4.500000 4.500000
579 1 11.500000 4.000000 4.500000
580 1 11.500000 4.500000 4.000000
581 1 11.000000 4.000000 5.000000
582 1 11.000000 4.500000 5.500000
583 1 11.500000 4.000000 5.500000
584 1 11.500000 4.500000 5.000000
585 1 11.000000 4.000000 6.000000
586 1 11.000000 4.500000 6.500000
587 1 11.500000 4.000000 6.500000
588 1 11.500000 4.500000 6.000000
589 1 11.000000 4.000000 7.000000
590 1 11.000000 4.500000 7.500000
591 1 11.500000 4.000000 7.500000
592 1 11.500000 4.500000 7.000000
593 1 11.000000 4.000000 8.000000
594 1 11.000000 4.500000 8.500000
595 1 11.500000 4.000000 8.500000
596 1 11.500000 4.500000 8.000000
597 1 11.000000 4.000000 9.000000
598 1 11.000000 4.500000 9.500000
599 1 11.500000 4.000000 9.500000
600 1 11.500000 4.500000 9.000000
601 1 11.000000 5.000000 0.000000
602 1 11.000000 5.500000 0.500000
603 1 11.500000 5.000000 0.500000
604 1 11.500000 5.500000 0.000000
605 1 11.000000 5.000000 1.000000
606 1 11.000000 5.500000 1.500000
607 1 11.500000 5.000000 1.500000
608 1 11.500000 5.500000 1.000000
609 1 11.000000 5.000000 2.000000
610 1 11.000000 5.500000 2.500000
611 1 11.500000 5.000000 2.500000
612 1 11.500000 5.500000 2.000000
613 1 11.000000 5.000000 3.000000
614 1 11.000000 5.500000 3.500000
615 1 11.500000 5.000000 3.500000
616 1 11.500000 5.500000 3.000000
617 1 11.000000 5.000000 4.000000
618 1 11.000000 5.500000 4.500000
619 1 11.500000 5.000000 4.500000
620 1 11.500000 5.500000 4.000000
621 1 11.000000 5.000000 5.000000
622 1 11.000000 5.500000 5.500000
623 1 11.500000 5.000000 5.500000
624 1 11.500000 5.500000 5.000000
625 1 11.000000 5.000000 6.000000
626 1 11.000000 5.500000 6.500000
627 1 11.500000 5.000000 6.500000
628 1 11.500000 5.500000 6.000000
629 1 11.000000 5.000000 7.000000
630 1 11.000000 5.500000 7.500000
631 1 11.500000 5.000000 7.500000
632 1 11.500000 5.500000 7.000000
633 1 11.000000 5.000000 8.000000
634 1 11.000000 5.500000 8.500000
635 1 11.500000 5.000000 8.500000
636 1 11.500000 5.500000 8.000000
637 1 11.000000 5.000000 9.000000
638 1 11.000000 5.500000 9.500000
639 1 11.500000 5.000000 9.500000
640 1 11.500000 5.500000 9.000000
641 1 11.000000 6.000000 0.000000
642 1 11.000000 6.500000 0.500000
643 1 11.500000 6.000000 0.500000
644 1 11.500000 6.500000 0.000000
645 1 11.000000 6.000000 1.000000
646 1 11.000000 6.500000 1.500000
647 1 11.500000 6.000000 1.500000
648 1 11.500000 6.500000 1.000000
649 1 11.000000 6.000000 2.000000
650 1 11.000000 6.500000 2.500000
651 1 11.500000 6.000000 2.500000
652 1 11.500000 6.500000 2.000000
653 1 11.000000 6.000000 3.000000
654 1 11.000000 6.500000 3.500000
655 1 11.500000 6.000000 3.500000
656 1 11.500000 6.500000 3.000000
657 1 11.000000 6.000000 4.000000
658 1 11.000000 6.500000 4.500000
659 1 11.500000 6.000000 4.500000
660 1 11.500000 6.500000 4.000000
661 1 11.000000 6.000000 5.000000
662 1 11.000000 6.500000 5.500000
663 1 11.500000 6.000000 5.500000
664 1 11.500000 6.500000 5.000000
665 1 11.000000 6.000000 6.000000
666 1 11.000000 6.500000 6.500000
667 1 11.500000 6.000000 6.500000
668 1 11.500000 6.500000 6.000000
669 1 11.000000 6.000000 7.000000
670 1 11.000000 6.500000 7.500000
671 1 11.500000 6.000000 7.500000
672 1 11.500000 6.500000 7.000000
673 1 11.000000 6.000000 8.000000
674 1 11.000000 6.500000 8.500000
675 1 11.500000 6.000000 8.500000
676 1 11.500000 6.500000 8.000000
677 1 11.000000 6.000000 9.000000
678 1 11.000000 6.500000 9.500000
679 1 11.500000 6.000000 9.500000
680 1 11.500000 6.500000 9.000000
681 1 11.000000 7.000000 0.000000
682 1 11.000000 7.500000 0.500000
683 1 11.500000 7.000000 0.500000
684 1 11.500000 7.500000 0.000000
685 1 11.000000 7.000000 1.000000
686 1 11.000000 7.500000 1.500000
687 1 11.500000 7.000000 1.500000
688 1 11.500000 7.500000 1.000000
689 1 11.000000 7.000000 2.000000
690 1 11.000000 7.500000 2.500000
691 1 11.500000 7.000000 2.500000
692 1 11.500000 7.500000 2.000000
693 1 11.000000 7.000000 3.000000
694 1 11.000000 7.500000 3.500000
695 1 11.500000 7.000000 3.500000
696 1 11.500000 7.500000 3.000000
697 1 11.000000 7.000000 4.000000
698 1 11.000000 7.500000 4.500000
699 1 11.500000 7.000000 4.500000
700 1 11.500000 7.500000 4.000000
701 1 11.000000 7.000000 5.000000
702 1 11.000000 7.500000 5.500000
703 1 11.500000 7.000000 5.500000
704 1 11.500000 7.500000 5.000000
705 1 11.000000 7.000000 6.000000
706 1 11.000000 7.500000 6.500000
707 1 11.500000 7.000000 6.500000
708 1 11.500000 7.500000 6.000000
709 1 11.000000 7.000000 7.000000
710 1 11.000000 7.500000 7.500000
711 1 11.500000 7.000000 7.500000
712 1 11.500000 7.500000 7.000000
713 1 11.000000 7.000000 8.000000
714 1 11.000000 7.500000 8.500000
715 1 11.500000 7.000000 8.500000
716 1 11.500000 7.500000 8.000000
717 1 11.000000 7.000000 9.000000
718 1 11.000000 7.500000 9.500000
719 1 11.500000 7.000000 9.500000
720 1 11.500000 7.500000 9.000000
721 1 11.000000 8.000000 0.000000
722 1 11.000000 8.500000 0.500000
723 1 11.500000 8.000000 0.500000
724 1 11.500000 8.500000 0.000000
725 1 11.000000 8.000000 1.000000
726 1 11.000000 8.500000 1.500000
727 1 11.500000 8.000000 1.500000
728 1 11.500000 8.500000 1.000000
729 1 11.000000 8.000000 2.000000
730 1 11.000000 8.500000 2.500000
731 1 11.500000 8.000000 2.500000
732 1 11.500000 8.500000 2.000000
733 1 11.000000 8.000000 3.000000
734 1 11.000000 8.500000 3.500000
735 1 11.500000 8.000000 3.500000
736 1 11.500000 8.500000 3.000000
737 1 11.000000 8.000000 4.000000
738 1 11.000000 8.500000 4.500000
739 1 11.500000 8.000000 4.500000
740 1 11.500000 8.500000 4.000000
741 1 11.000000 8.000000 5.000000
742 1 11.000000 8.500000 5.500000
743 1 11.500000 8.000000 5.500000
744 1 11.500000 8.500000 5.000000
745 1 11.000000 8.000000 6.000000
746 1 11.000000 8.500000 6.500000
747 1 11.500000 8.000000 6.500000
748 1 11.500000 8.500000 6.000000
749 1 11.000000 8.000000 7.000000
750 1 11.000000 8.500000 7.500000
751 1 11.500000 8.000000 7.500000
752 1 11.500000 8.500000 7.000000
753 1 11.000000 8.000000 8.000000
754 1 11.000000 8.500000 8.500000
755 1 11.500000 8.000000 8.500000
756 1 11.500000 8.500000 8.000000
757 1 11.000000 8.000000 9.000000
758 1 11.000000 8.500000 9.500000
759 1 11.500000 8.000000 9.500000
760 1 11.500000 8.500000 9.000000
761 1 11.000000 9.000000 0.000000
762 1 11.000000 9.500000 0.500000
763 1 11.500000 9.000000 0.500000
764 1 11.500000 9.500000 0.000000
765 1 11.000000 9.000000 1.000000
766 1 11.000000 9.500000 1.500000
767 1 11.500000 9.000000 1.500000
768 1 11.500000 9.500000 1.000000
769 1 11.000000 9.000000 2.000000
770 1 11.000000 9.500000 2.500000
771 1 11.500000 9.000000 2.500000
772 1 11.500000 9.500000 2.000000
773 1 11.000000 9.000000 3.000000
774 1 11.000000 9.500000 3.500000
775 1 11.500000 9.000000 3.500000
776 1 11.500000 9.500000 3.000000
777 1 11.000000 9.000000 4.000000
778 1 11.000000 9.500000 4.500000
779 1 11.500000 9.000000 4.500000
780 1 11.500000 9.500000 4.000000
781 1 11.000000 9.000000 5.000000
782 1 11.000000 9.500000 5.500000
783 1 11.500000 9.000000 5.500000
784 1 11.500000 9.500000 5.000000
785 1 11.000000 9.000000 6.000000
786 1 11.000000 9.500000 6.500000
787 1 11.500000 9.000000 6.500000
788 1 11.500000 9.500000 6.000000
789 1 11.000000 9.000000 7.000000
790 1 11.000000 9.500000 7.500000
791 1 11.500000 9.000000 7.500000
792 1 11.500000 9.500000 7.000000
793 1 11.000000 9.000000 8.000000
794 1 11.000000 9.500000 8.500000
795 1 11.500000 9.000000 8.500000
796 1 11.500000 9.500000 8.000000
797 1 11.000000 9.000000 9.000000
798 1 11.000000 9.500000 9.500000
799 1 11.500000 9.000000 9.500000
800 1 11.500000 9.500000 9.000000
801 1 12.000000 0.000000 0.000000
802 1 12.000000 0.500000 0.500000
803 1 12.500000 0.000000 0.500000
804 1 12.500000 0.500000 0.000000
805 1 12.000000 0.000000 1.000000
806 1 12.000000 0.500000 1.500000
807 1 12.500000 0.000000 1.500000
808 1 12.500000 0.500000 1.000000
809 1 12.000000 0.000000 2.000000
810 1 12.000000 0.500000 2.500000
811 1 12.500000 0.000000 2.500000
812 1 12.500000 0.500000 2.000000
813 1 12.000000 0.000000 3.000000
814 1 12.000000 0.500000 3.500000
815 1 12.500000 0.000000 3.500000
816 1 12.500000 0.500000 3.000000
817 1 12.000000 0.000000 4.000000
818 1 12.000000 0.500000 4.500000
819 1 12.500000 0.000000 4.500000
820 1 12.500000 0.500000 4.000000
821 1 12.000000 0.000000 5.000000
822 1 12.000000 0.500000 5.500000
823 1 12.500000 0.000000 5.500000
824 1 12.500000 0.500000 5.000000
825 1 12.000000 0.000000 6.000000
826 1 12.000000 0.500000 6.500000
827 1 12.500000 0.000000 6.500000
828 1 12.500000 0.500000 6.000000
829 1 12.000000 0.000000 7.000000
830 1 12.000000 0.500000 7.500000
831 1 12.500000 0.000000 7.500000
832 1 12.500000 0.500000 7.000000
833 1 12.000000 0.000000 8.000000
834 1 12.000000 0.500000 8.500000
835 1 12.500000 0.000000 8.500000
836 1 12.500000 0.500000 8.000000
837 1 12.000000 0.000000 9.000000
838 1 12.000000 0.500000 9.500000
839 1 12.500000 0.000000 9.500000
840 1 12.500000 0.500000 9.000000
841 1 12.000000 1.000000 0.000000
842 1 12.000000 1.500000 0.500000
843 1 12.500000 1.000000 0.500000
844 1 12.500000 1.500000 0.000000
845 1 12.000000 1.000000 1.000000
846 1 12.000000 1.500000 1.500000
847 1 12.500000 1.000000 1.500000
848 1 12.500000 1.500000 1.000000
849 1 12.000000 1.000000 2.000000
850 1 12.000000 1.500000 2.500000
851 1 12.500000 1.000000 2.500000
852 1 12.500000 1.500000 2.000000
853 1 12.000000 1.000000 3.000000
854 1 12.000000 1.500000 3.500000
855 1 12.500000 1.000000 3.500000
856 1 12.500000 1.500000 3.000000
857 1 12.000000 1.000000 4.000000
858 1 12.000000 1.500000 4.500000
859 1 12.500000 1.000000 4.500000
860 1 12.500000 1.500000 4.000000
861 1 12.000000 1.000000 5.000000
862 1 12.000000 1.500000 5.500000
863 1 12.500000 1.000000 5.500000
864 1 12.500000 1.500000 5.000000
865 1 12.000000 1.000000 6.000000
866 1 12.000000 1.500000 6.500000
867 1 12.500000 1.000000 6.500000
868 1 12.500000 1.500000 6.000000
869 1 12.000000 1.000000 7.000000
870 1 12.000000 1.500000 7.500000
871 1 12.500000 1.000000 7.500000
872 1 12.500000 1.500000 7.000000
873 1 12.000000 1.000000 8.000000
874 1 12.000000 1.500000 8.500000
875 1 12.500000 1.000000 8.500000
876 1 12.500000 1.500000 8.000000
877 1 12.000000 1.000000 9.000000
878 1 12.000000 1.500000 9.500000
879 1 12.500000 1.000000 9.500000
880 1 12.500000 1.500000 9.000000
881 1 12.000000 2.000000 0.000000